Mo S                                    
   1.00000000000000     
     3.185000    0.000000    0.000000
    -1.592500    2.758291    0.000000
     0.000000    0.000000   25.000000
   Mo   S    W 
     1     4     1
Direct
  0.666667  0.333333  0.376842
  1.000000  0.000000  0.314442
  1.000000  0.000000  0.439205
  0.666667  0.333333  0.560659
  0.666667  0.333333  0.685728
  1.000000  0.000000  0.623125
 
   20   20  150
 0.45087E-06 0.44299E-06 0.44263E-06 0.49478E-06 0.55879E-06 0.53265E-06 0.49932E-06 0.51475E-06 0.52289E-06 0.50769E-06
 0.50620E-06 0.50769E-06 0.52289E-06 0.51475E-06 0.49932E-06 0.53265E-06 0.55879E-06 0.49478E-06 0.44263E-06 0.44299E-06
 0.44299E-06 0.44299E-06 0.42665E-06 0.42348E-06 0.50218E-06 0.55526E-06 0.49841E-06 0.48366E-06 0.51339E-06 0.50749E-06
 0.50012E-06 0.50012E-06 0.50749E-06 0.51339E-06 0.48366E-06 0.49841E-06 0.55526E-06 0.50218E-06 0.42348E-06 0.42665E-06
 0.44263E-06 0.43895E-06 0.44263E-06 0.42348E-06 0.43879E-06 0.50371E-06 0.49736E-06 0.48850E-06 0.53401E-06 0.54116E-06
 0.51587E-06 0.50463E-06 0.51587E-06 0.54116E-06 0.53401E-06 0.48850E-06 0.49736E-06 0.50371E-06 0.43879E-06 0.42348E-06
 0.49478E-06 0.46322E-06 0.46322E-06 0.49478E-06 0.50218E-06 0.50371E-06 0.47697E-06 0.47474E-06 0.52633E-06 0.55344E-06
 0.53524E-06 0.48910E-06 0.48910E-06 0.53524E-06 0.55344E-06 0.52633E-06 0.47474E-06 0.47697E-06 0.50371E-06 0.50218E-06
 0.55879E-06 0.51982E-06 0.49329E-06 0.51982E-06 0.55879E-06 0.55526E-06 0.49736E-06 0.47474E-06 0.49376E-06 0.47508E-06
 0.47180E-06 0.46890E-06 0.44795E-06 0.46890E-06 0.47180E-06 0.47508E-06 0.49376E-06 0.47474E-06 0.49736E-06 0.55526E-06
 0.53265E-06 0.52261E-06 0.50644E-06 0.50644E-06 0.52261E-06 0.53265E-06 0.49841E-06 0.48850E-06 0.52633E-06 0.47508E-06
 0.41272E-06 0.43304E-06 0.44599E-06 0.44599E-06 0.43304E-06 0.41272E-06 0.47508E-06 0.52633E-06 0.48850E-06 0.49841E-06
 0.49932E-06 0.51483E-06 0.49980E-06 0.49582E-06 0.49980E-06 0.51483E-06 0.49932E-06 0.48366E-06 0.53401E-06 0.55344E-06
 0.47180E-06 0.43304E-06 0.44792E-06 0.45539E-06 0.44792E-06 0.43304E-06 0.47180E-06 0.55344E-06 0.53401E-06 0.48366E-06
 0.51475E-06 0.52212E-06 0.51730E-06 0.50921E-06 0.50921E-06 0.51730E-06 0.52212E-06 0.51475E-06 0.51339E-06 0.54116E-06
 0.53524E-06 0.46890E-06 0.44599E-06 0.45539E-06 0.45539E-06 0.44599E-06 0.46890E-06 0.53524E-06 0.54116E-06 0.51339E-06
 0.52289E-06 0.51123E-06 0.50340E-06 0.51609E-06 0.52023E-06 0.51609E-06 0.50340E-06 0.51123E-06 0.52289E-06 0.50749E-06
 0.51587E-06 0.48910E-06 0.44795E-06 0.44599E-06 0.44792E-06 0.44599E-06 0.44795E-06 0.48910E-06 0.51587E-06 0.50749E-06
 0.50769E-06 0.51174E-06 0.49871E-06 0.51724E-06 0.50552E-06 0.50552E-06 0.51724E-06 0.49871E-06 0.51174E-06 0.50769E-06
 0.50012E-06 0.50463E-06 0.48910E-06 0.46890E-06 0.43304E-06 0.43304E-06 0.46890E-06 0.48910E-06 0.50463E-06 0.50012E-06
 0.50620E-06 0.52113E-06 0.51277E-06 0.54504E-06 0.54952E-06 0.51163E-06 0.54952E-06 0.54504E-06 0.51277E-06 0.52113E-06
 0.50620E-06 0.50012E-06 0.51587E-06 0.53524E-06 0.47180E-06 0.41272E-06 0.47180E-06 0.53524E-06 0.51587E-06 0.50012E-06
 0.50769E-06 0.52113E-06 0.51017E-06 0.51627E-06 0.58585E-06 0.59302E-06 0.59302E-06 0.58585E-06 0.51627E-06 0.51017E-06
 0.52113E-06 0.50769E-06 0.50749E-06 0.54116E-06 0.55344E-06 0.47508E-06 0.47508E-06 0.55344E-06 0.54116E-06 0.50749E-06
 0.52289E-06 0.51174E-06 0.51277E-06 0.51627E-06 0.56119E-06 0.64264E-06 0.66215E-06 0.64264E-06 0.56119E-06 0.51627E-06
 0.51277E-06 0.51174E-06 0.52289E-06 0.51339E-06 0.53401E-06 0.52633E-06 0.49376E-06 0.52633E-06 0.53401E-06 0.51339E-06
 0.51475E-06 0.51123E-06 0.49871E-06 0.54504E-06 0.58585E-06 0.64264E-06 0.68052E-06 0.68052E-06 0.64264E-06 0.58585E-06
 0.54504E-06 0.49871E-06 0.51123E-06 0.51475E-06 0.48366E-06 0.48850E-06 0.47474E-06 0.47474E-06 0.48850E-06 0.48366E-06
 0.49932E-06 0.52212E-06 0.50340E-06 0.51724E-06 0.54952E-06 0.59302E-06 0.66215E-06 0.68052E-06 0.66215E-06 0.59302E-06
 0.54952E-06 0.51724E-06 0.50340E-06 0.52212E-06 0.49932E-06 0.49841E-06 0.49736E-06 0.47697E-06 0.49736E-06 0.49841E-06
 0.53265E-06 0.51483E-06 0.51730E-06 0.51609E-06 0.50552E-06 0.51163E-06 0.59302E-06 0.64264E-06 0.64264E-06 0.59302E-06
 0.51163E-06 0.50552E-06 0.51609E-06 0.51730E-06 0.51483E-06 0.53265E-06 0.55526E-06 0.50371E-06 0.50371E-06 0.55526E-06
 0.55879E-06 0.52261E-06 0.49980E-06 0.50921E-06 0.52023E-06 0.50552E-06 0.54952E-06 0.58585E-06 0.56119E-06 0.58585E-06
 0.54952E-06 0.50552E-06 0.52023E-06 0.50921E-06 0.49980E-06 0.52261E-06 0.55879E-06 0.50218E-06 0.43879E-06 0.50218E-06
 0.49478E-06 0.51982E-06 0.50644E-06 0.49582E-06 0.50921E-06 0.51609E-06 0.51724E-06 0.54504E-06 0.51627E-06 0.51627E-06
 0.54504E-06 0.51724E-06 0.51609E-06 0.50921E-06 0.49582E-06 0.50644E-06 0.51982E-06 0.49478E-06 0.42348E-06 0.42348E-06
 0.44263E-06 0.46322E-06 0.49329E-06 0.50644E-06 0.49980E-06 0.51730E-06 0.50340E-06 0.49871E-06 0.51277E-06 0.51017E-06
 0.51277E-06 0.49871E-06 0.50340E-06 0.51730E-06 0.49980E-06 0.50644E-06 0.49329E-06 0.46322E-06 0.44263E-06 0.42665E-06
 0.44299E-06 0.43895E-06 0.46322E-06 0.51982E-06 0.52261E-06 0.51483E-06 0.52212E-06 0.51123E-06 0.51174E-06 0.52113E-06
 0.52113E-06 0.51174E-06 0.51123E-06 0.52212E-06 0.51483E-06 0.52261E-06 0.51982E-06 0.46322E-06 0.43895E-06 0.44299E-06
 0.37859E-06 0.43958E-06 0.48984E-06 0.43056E-06 0.42223E-06 0.49236E-06 0.51674E-06 0.52682E-06 0.55090E-06 0.52877E-06
 0.50799E-06 0.52877E-06 0.55090E-06 0.52682E-06 0.51674E-06 0.49236E-06 0.42223E-06 0.43056E-06 0.48984E-06 0.43958E-06
 0.43958E-06 0.43958E-06 0.51068E-06 0.51079E-06 0.46256E-06 0.50899E-06 0.54583E-06 0.49665E-06 0.48682E-06 0.51497E-06
 0.51918E-06 0.51918E-06 0.51497E-06 0.48682E-06 0.49665E-06 0.54583E-06 0.50899E-06 0.46256E-06 0.51079E-06 0.51068E-06
 0.48984E-06 0.47541E-06 0.48984E-06 0.51079E-06 0.48921E-06 0.48894E-06 0.54044E-06 0.49951E-06 0.42628E-06 0.46148E-06
 0.52677E-06 0.53199E-06 0.52677E-06 0.46148E-06 0.42628E-06 0.49951E-06 0.54044E-06 0.48894E-06 0.48921E-06 0.51079E-06
 0.43056E-06 0.43753E-06 0.43753E-06 0.43056E-06 0.46256E-06 0.48894E-06 0.51806E-06 0.55285E-06 0.48211E-06 0.44218E-06
 0.49737E-06 0.50001E-06 0.50001E-06 0.49737E-06 0.44218E-06 0.48211E-06 0.55285E-06 0.51806E-06 0.48894E-06 0.46256E-06
 0.42223E-06 0.41054E-06 0.44018E-06 0.41054E-06 0.42223E-06 0.50899E-06 0.54044E-06 0.55285E-06 0.57008E-06 0.50669E-06
 0.47881E-06 0.46618E-06 0.43676E-06 0.46618E-06 0.47881E-06 0.50669E-06 0.57008E-06 0.55285E-06 0.54044E-06 0.50899E-06
 0.49236E-06 0.45506E-06 0.50819E-06 0.50819E-06 0.45506E-06 0.49236E-06 0.54583E-06 0.49951E-06 0.48211E-06 0.50669E-06
 0.48419E-06 0.46271E-06 0.44012E-06 0.44012E-06 0.46271E-06 0.48419E-06 0.50669E-06 0.48211E-06 0.49951E-06 0.54583E-06
 0.51674E-06 0.48654E-06 0.51350E-06 0.54913E-06 0.51350E-06 0.48654E-06 0.51674E-06 0.49665E-06 0.42628E-06 0.44218E-06
 0.47881E-06 0.46271E-06 0.45656E-06 0.45728E-06 0.45656E-06 0.46271E-06 0.47881E-06 0.44218E-06 0.42628E-06 0.49665E-06
 0.52682E-06 0.48572E-06 0.47104E-06 0.50237E-06 0.50237E-06 0.47104E-06 0.48572E-06 0.52682E-06 0.48682E-06 0.46148E-06
 0.49737E-06 0.46618E-06 0.44012E-06 0.45728E-06 0.45728E-06 0.44012E-06 0.46618E-06 0.49737E-06 0.46148E-06 0.48682E-06
 0.55090E-06 0.51669E-06 0.44938E-06 0.46523E-06 0.50416E-06 0.46523E-06 0.44938E-06 0.51669E-06 0.55090E-06 0.51497E-06
 0.52677E-06 0.50001E-06 0.43676E-06 0.44012E-06 0.45656E-06 0.44012E-06 0.43676E-06 0.50001E-06 0.52677E-06 0.51497E-06
 0.52877E-06 0.53799E-06 0.47354E-06 0.43536E-06 0.46703E-06 0.46703E-06 0.43536E-06 0.47354E-06 0.53799E-06 0.52877E-06
 0.51918E-06 0.53199E-06 0.50001E-06 0.46618E-06 0.46271E-06 0.46271E-06 0.46618E-06 0.50001E-06 0.53199E-06 0.51918E-06
 0.50799E-06 0.50470E-06 0.48083E-06 0.44544E-06 0.42966E-06 0.43042E-06 0.42966E-06 0.44544E-06 0.48083E-06 0.50470E-06
 0.50799E-06 0.51918E-06 0.52677E-06 0.49737E-06 0.47881E-06 0.48419E-06 0.47881E-06 0.49737E-06 0.52677E-06 0.51918E-06
 0.52877E-06 0.50470E-06 0.45932E-06 0.44090E-06 0.44476E-06 0.43636E-06 0.43636E-06 0.44476E-06 0.44090E-06 0.45932E-06
 0.50470E-06 0.52877E-06 0.51497E-06 0.46148E-06 0.44218E-06 0.50669E-06 0.50669E-06 0.44218E-06 0.46148E-06 0.51497E-06
 0.55090E-06 0.53799E-06 0.48083E-06 0.44090E-06 0.45267E-06 0.47654E-06 0.47713E-06 0.47654E-06 0.45267E-06 0.44090E-06
 0.48083E-06 0.53799E-06 0.55090E-06 0.48682E-06 0.42628E-06 0.48211E-06 0.57008E-06 0.48211E-06 0.42628E-06 0.48682E-06
 0.52682E-06 0.51669E-06 0.47354E-06 0.44544E-06 0.44476E-06 0.47654E-06 0.50126E-06 0.50126E-06 0.47654E-06 0.44476E-06
 0.44544E-06 0.47354E-06 0.51669E-06 0.52682E-06 0.49665E-06 0.49951E-06 0.55285E-06 0.55285E-06 0.49951E-06 0.49665E-06
 0.51674E-06 0.48572E-06 0.44938E-06 0.43536E-06 0.42966E-06 0.43636E-06 0.47713E-06 0.50126E-06 0.47713E-06 0.43636E-06
 0.42966E-06 0.43536E-06 0.44938E-06 0.48572E-06 0.51674E-06 0.54583E-06 0.54044E-06 0.51806E-06 0.54044E-06 0.54583E-06
 0.49236E-06 0.48654E-06 0.47104E-06 0.46523E-06 0.46703E-06 0.43042E-06 0.43636E-06 0.47654E-06 0.47654E-06 0.43636E-06
 0.43042E-06 0.46703E-06 0.46523E-06 0.47104E-06 0.48654E-06 0.49236E-06 0.50899E-06 0.48894E-06 0.48894E-06 0.50899E-06
 0.42223E-06 0.45506E-06 0.51350E-06 0.50237E-06 0.50416E-06 0.46703E-06 0.42966E-06 0.44476E-06 0.45267E-06 0.44476E-06
 0.42966E-06 0.46703E-06 0.50416E-06 0.50237E-06 0.51350E-06 0.45506E-06 0.42223E-06 0.46256E-06 0.48921E-06 0.46256E-06
 0.43056E-06 0.41054E-06 0.50819E-06 0.54913E-06 0.50237E-06 0.46523E-06 0.43536E-06 0.44544E-06 0.44090E-06 0.44090E-06
 0.44544E-06 0.43536E-06 0.46523E-06 0.50237E-06 0.54913E-06 0.50819E-06 0.41054E-06 0.43056E-06 0.51079E-06 0.51079E-06
 0.48984E-06 0.43753E-06 0.44018E-06 0.50819E-06 0.51350E-06 0.47104E-06 0.44938E-06 0.47354E-06 0.48083E-06 0.45932E-06
 0.48083E-06 0.47354E-06 0.44938E-06 0.47104E-06 0.51350E-06 0.50819E-06 0.44018E-06 0.43753E-06 0.48984E-06 0.51068E-06
 0.43958E-06 0.47541E-06 0.43753E-06 0.41054E-06 0.45506E-06 0.48654E-06 0.48572E-06 0.51669E-06 0.53799E-06 0.50470E-06
 0.50470E-06 0.53799E-06 0.51669E-06 0.48572E-06 0.48654E-06 0.45506E-06 0.41054E-06 0.43753E-06 0.47541E-06 0.43958E-06
 0.53547E-06 0.45254E-06 0.40652E-06 0.45969E-06 0.50035E-06 0.48531E-06 0.48344E-06 0.47617E-06 0.46886E-06 0.53817E-06
 0.61338E-06 0.53817E-06 0.46886E-06 0.47617E-06 0.48344E-06 0.48531E-06 0.50035E-06 0.45969E-06 0.40652E-06 0.45254E-06
 0.45254E-06 0.45254E-06 0.38482E-06 0.41440E-06 0.47321E-06 0.46283E-06 0.47406E-06 0.52872E-06 0.53773E-06 0.54456E-06
 0.60373E-06 0.60373E-06 0.54456E-06 0.53773E-06 0.52872E-06 0.47406E-06 0.46283E-06 0.47321E-06 0.41440E-06 0.38482E-06
 0.40652E-06 0.42963E-06 0.40652E-06 0.41440E-06 0.47308E-06 0.48662E-06 0.47635E-06 0.52572E-06 0.56477E-06 0.54566E-06
 0.53125E-06 0.52881E-06 0.53125E-06 0.54566E-06 0.56477E-06 0.52572E-06 0.47635E-06 0.48662E-06 0.47308E-06 0.41440E-06
 0.45969E-06 0.45473E-06 0.45473E-06 0.45969E-06 0.47321E-06 0.48662E-06 0.48778E-06 0.49241E-06 0.50667E-06 0.49770E-06
 0.47787E-06 0.46873E-06 0.46873E-06 0.47787E-06 0.49770E-06 0.50667E-06 0.49241E-06 0.48778E-06 0.48662E-06 0.47321E-06
 0.50035E-06 0.50103E-06 0.48007E-06 0.50103E-06 0.50035E-06 0.46283E-06 0.47635E-06 0.49241E-06 0.48284E-06 0.47800E-06
 0.46485E-06 0.47084E-06 0.48496E-06 0.47084E-06 0.46485E-06 0.47800E-06 0.48284E-06 0.49241E-06 0.47635E-06 0.46283E-06
 0.48531E-06 0.51817E-06 0.46581E-06 0.46581E-06 0.51817E-06 0.48531E-06 0.47406E-06 0.52572E-06 0.50667E-06 0.47800E-06
 0.47213E-06 0.45899E-06 0.45400E-06 0.45400E-06 0.45899E-06 0.47213E-06 0.47800E-06 0.50667E-06 0.52572E-06 0.47406E-06
 0.48344E-06 0.52579E-06 0.47458E-06 0.41043E-06 0.47458E-06 0.52579E-06 0.48344E-06 0.52872E-06 0.56477E-06 0.49770E-06
 0.46485E-06 0.45899E-06 0.40401E-06 0.36517E-06 0.40401E-06 0.45899E-06 0.46485E-06 0.49770E-06 0.56477E-06 0.52872E-06
 0.47617E-06 0.52055E-06 0.54073E-06 0.43506E-06 0.43506E-06 0.54073E-06 0.52055E-06 0.47617E-06 0.53773E-06 0.54566E-06
 0.47787E-06 0.47084E-06 0.45400E-06 0.36517E-06 0.36517E-06 0.45400E-06 0.47084E-06 0.47787E-06 0.54566E-06 0.53773E-06
 0.46886E-06 0.48011E-06 0.55925E-06 0.52064E-06 0.46385E-06 0.52064E-06 0.55925E-06 0.48011E-06 0.46886E-06 0.54456E-06
 0.53125E-06 0.46873E-06 0.48496E-06 0.45400E-06 0.40401E-06 0.45400E-06 0.48496E-06 0.46873E-06 0.53125E-06 0.54456E-06
 0.53817E-06 0.48081E-06 0.51274E-06 0.53097E-06 0.51395E-06 0.51395E-06 0.53097E-06 0.51274E-06 0.48081E-06 0.53817E-06
 0.60373E-06 0.52881E-06 0.46873E-06 0.47084E-06 0.45899E-06 0.45899E-06 0.47084E-06 0.46873E-06 0.52881E-06 0.60373E-06
 0.61338E-06 0.55076E-06 0.52471E-06 0.51658E-06 0.52399E-06 0.54665E-06 0.52399E-06 0.51658E-06 0.52471E-06 0.55076E-06
 0.61338E-06 0.60373E-06 0.53125E-06 0.47787E-06 0.46485E-06 0.47213E-06 0.46485E-06 0.47787E-06 0.53125E-06 0.60373E-06
 0.53817E-06 0.55076E-06 0.55730E-06 0.54621E-06 0.53456E-06 0.58126E-06 0.58126E-06 0.53456E-06 0.54621E-06 0.55730E-06
 0.55076E-06 0.53817E-06 0.54456E-06 0.54566E-06 0.49770E-06 0.47800E-06 0.47800E-06 0.49770E-06 0.54566E-06 0.54456E-06
 0.46886E-06 0.48081E-06 0.52471E-06 0.54621E-06 0.54726E-06 0.59725E-06 0.65932E-06 0.59725E-06 0.54726E-06 0.54621E-06
 0.52471E-06 0.48081E-06 0.46886E-06 0.53773E-06 0.56477E-06 0.50667E-06 0.48284E-06 0.50667E-06 0.56477E-06 0.53773E-06
 0.47617E-06 0.48011E-06 0.51274E-06 0.51658E-06 0.53456E-06 0.59725E-06 0.70081E-06 0.70081E-06 0.59725E-06 0.53456E-06
 0.51658E-06 0.51274E-06 0.48011E-06 0.47617E-06 0.52872E-06 0.52572E-06 0.49241E-06 0.49241E-06 0.52572E-06 0.52872E-06
 0.48344E-06 0.52055E-06 0.55925E-06 0.53097E-06 0.52399E-06 0.58126E-06 0.65932E-06 0.70081E-06 0.65932E-06 0.58126E-06
 0.52399E-06 0.53097E-06 0.55925E-06 0.52055E-06 0.48344E-06 0.47406E-06 0.47635E-06 0.48778E-06 0.47635E-06 0.47406E-06
 0.48531E-06 0.52579E-06 0.54073E-06 0.52064E-06 0.51395E-06 0.54665E-06 0.58126E-06 0.59725E-06 0.59725E-06 0.58126E-06
 0.54665E-06 0.51395E-06 0.52064E-06 0.54073E-06 0.52579E-06 0.48531E-06 0.46283E-06 0.48662E-06 0.48662E-06 0.46283E-06
 0.50035E-06 0.51817E-06 0.47458E-06 0.43506E-06 0.46385E-06 0.51395E-06 0.52399E-06 0.53456E-06 0.54726E-06 0.53456E-06
 0.52399E-06 0.51395E-06 0.46385E-06 0.43506E-06 0.47458E-06 0.51817E-06 0.50035E-06 0.47321E-06 0.47308E-06 0.47321E-06
 0.45969E-06 0.50103E-06 0.46581E-06 0.41043E-06 0.43506E-06 0.52064E-06 0.53097E-06 0.51658E-06 0.54621E-06 0.54621E-06
 0.51658E-06 0.53097E-06 0.52064E-06 0.43506E-06 0.41043E-06 0.46581E-06 0.50103E-06 0.45969E-06 0.41440E-06 0.41440E-06
 0.40652E-06 0.45473E-06 0.48007E-06 0.46581E-06 0.47458E-06 0.54073E-06 0.55925E-06 0.51274E-06 0.52471E-06 0.55730E-06
 0.52471E-06 0.51274E-06 0.55925E-06 0.54073E-06 0.47458E-06 0.46581E-06 0.48007E-06 0.45473E-06 0.40652E-06 0.38482E-06
 0.45254E-06 0.42963E-06 0.45473E-06 0.50103E-06 0.51817E-06 0.52579E-06 0.52055E-06 0.48011E-06 0.48081E-06 0.55076E-06
 0.55076E-06 0.48081E-06 0.48011E-06 0.52055E-06 0.52579E-06 0.51817E-06 0.50103E-06 0.45473E-06 0.42963E-06 0.45254E-06
 0.51428E-06 0.48659E-06 0.46194E-06 0.46485E-06 0.49515E-06 0.49886E-06 0.49194E-06 0.51514E-06 0.56584E-06 0.55558E-06
 0.51696E-06 0.55558E-06 0.56584E-06 0.51514E-06 0.49194E-06 0.49886E-06 0.49515E-06 0.46485E-06 0.46194E-06 0.48659E-06
 0.48659E-06 0.48659E-06 0.48342E-06 0.45492E-06 0.48398E-06 0.52274E-06 0.49658E-06 0.47192E-06 0.48221E-06 0.51154E-06
 0.50052E-06 0.50052E-06 0.51154E-06 0.48221E-06 0.47192E-06 0.49658E-06 0.52274E-06 0.48398E-06 0.45492E-06 0.48342E-06
 0.46194E-06 0.44334E-06 0.46194E-06 0.45492E-06 0.46718E-06 0.54053E-06 0.52294E-06 0.47643E-06 0.47250E-06 0.48849E-06
 0.51397E-06 0.51982E-06 0.51397E-06 0.48849E-06 0.47250E-06 0.47643E-06 0.52294E-06 0.54053E-06 0.46718E-06 0.45492E-06
 0.46485E-06 0.43169E-06 0.43169E-06 0.46485E-06 0.48398E-06 0.54053E-06 0.54512E-06 0.48097E-06 0.47737E-06 0.49166E-06
 0.50741E-06 0.53137E-06 0.53137E-06 0.50741E-06 0.49166E-06 0.47737E-06 0.48097E-06 0.54512E-06 0.54053E-06 0.48398E-06
 0.49515E-06 0.44775E-06 0.42160E-06 0.44775E-06 0.49515E-06 0.52274E-06 0.52294E-06 0.48097E-06 0.46573E-06 0.47009E-06
 0.45822E-06 0.47281E-06 0.49617E-06 0.47281E-06 0.45822E-06 0.47009E-06 0.46573E-06 0.48097E-06 0.52294E-06 0.52274E-06
 0.49886E-06 0.46332E-06 0.44968E-06 0.44968E-06 0.46332E-06 0.49886E-06 0.49658E-06 0.47643E-06 0.47737E-06 0.47009E-06
 0.42949E-06 0.41322E-06 0.44525E-06 0.44525E-06 0.41322E-06 0.42949E-06 0.47009E-06 0.47737E-06 0.47643E-06 0.49658E-06
 0.49194E-06 0.46726E-06 0.48253E-06 0.52622E-06 0.48253E-06 0.46726E-06 0.49194E-06 0.47192E-06 0.47250E-06 0.49166E-06
 0.45822E-06 0.41322E-06 0.42035E-06 0.43650E-06 0.42035E-06 0.41322E-06 0.45822E-06 0.49166E-06 0.47250E-06 0.47192E-06
 0.51514E-06 0.48601E-06 0.47009E-06 0.53290E-06 0.53290E-06 0.47009E-06 0.48601E-06 0.51514E-06 0.48221E-06 0.48849E-06
 0.50741E-06 0.47281E-06 0.44525E-06 0.43650E-06 0.43650E-06 0.44525E-06 0.47281E-06 0.50741E-06 0.48849E-06 0.48221E-06
 0.56584E-06 0.53519E-06 0.46614E-06 0.46105E-06 0.47792E-06 0.46105E-06 0.46614E-06 0.53519E-06 0.56584E-06 0.51154E-06
 0.51397E-06 0.53137E-06 0.49617E-06 0.44525E-06 0.42035E-06 0.44525E-06 0.49617E-06 0.53137E-06 0.51397E-06 0.51154E-06
 0.55558E-06 0.56128E-06 0.48738E-06 0.44710E-06 0.42934E-06 0.42934E-06 0.44710E-06 0.48738E-06 0.56128E-06 0.55558E-06
 0.50052E-06 0.51982E-06 0.53137E-06 0.47281E-06 0.41322E-06 0.41322E-06 0.47281E-06 0.53137E-06 0.51982E-06 0.50052E-06
 0.51696E-06 0.52185E-06 0.48837E-06 0.46546E-06 0.44662E-06 0.43264E-06 0.44662E-06 0.46546E-06 0.48837E-06 0.52185E-06
 0.51696E-06 0.50052E-06 0.51397E-06 0.50741E-06 0.45822E-06 0.42949E-06 0.45822E-06 0.50741E-06 0.51397E-06 0.50052E-06
 0.55558E-06 0.52185E-06 0.47528E-06 0.46612E-06 0.45893E-06 0.44745E-06 0.44745E-06 0.45893E-06 0.46612E-06 0.47528E-06
 0.52185E-06 0.55558E-06 0.51154E-06 0.48849E-06 0.49166E-06 0.47009E-06 0.47009E-06 0.49166E-06 0.48849E-06 0.51154E-06
 0.56584E-06 0.56128E-06 0.48837E-06 0.46612E-06 0.45509E-06 0.44787E-06 0.44992E-06 0.44787E-06 0.45509E-06 0.46612E-06
 0.48837E-06 0.56128E-06 0.56584E-06 0.48221E-06 0.47250E-06 0.47737E-06 0.46573E-06 0.47737E-06 0.47250E-06 0.48221E-06
 0.51514E-06 0.53519E-06 0.48738E-06 0.46546E-06 0.45893E-06 0.44787E-06 0.45211E-06 0.45211E-06 0.44787E-06 0.45893E-06
 0.46546E-06 0.48738E-06 0.53519E-06 0.51514E-06 0.47192E-06 0.47643E-06 0.48097E-06 0.48097E-06 0.47643E-06 0.47192E-06
 0.49194E-06 0.48601E-06 0.46614E-06 0.44710E-06 0.44662E-06 0.44745E-06 0.44992E-06 0.45211E-06 0.44992E-06 0.44745E-06
 0.44662E-06 0.44710E-06 0.46614E-06 0.48601E-06 0.49194E-06 0.49658E-06 0.52294E-06 0.54512E-06 0.52294E-06 0.49658E-06
 0.49886E-06 0.46726E-06 0.47009E-06 0.46105E-06 0.42934E-06 0.43264E-06 0.44745E-06 0.44787E-06 0.44787E-06 0.44745E-06
 0.43264E-06 0.42934E-06 0.46105E-06 0.47009E-06 0.46726E-06 0.49886E-06 0.52274E-06 0.54053E-06 0.54053E-06 0.52274E-06
 0.49515E-06 0.46332E-06 0.48253E-06 0.53290E-06 0.47792E-06 0.42934E-06 0.44662E-06 0.45893E-06 0.45509E-06 0.45893E-06
 0.44662E-06 0.42934E-06 0.47792E-06 0.53290E-06 0.48253E-06 0.46332E-06 0.49515E-06 0.48398E-06 0.46718E-06 0.48398E-06
 0.46485E-06 0.44775E-06 0.44968E-06 0.52622E-06 0.53290E-06 0.46105E-06 0.44710E-06 0.46546E-06 0.46612E-06 0.46612E-06
 0.46546E-06 0.44710E-06 0.46105E-06 0.53290E-06 0.52622E-06 0.44968E-06 0.44775E-06 0.46485E-06 0.45492E-06 0.45492E-06
 0.46194E-06 0.43169E-06 0.42160E-06 0.44968E-06 0.48253E-06 0.47009E-06 0.46614E-06 0.48738E-06 0.48837E-06 0.47528E-06
 0.48837E-06 0.48738E-06 0.46614E-06 0.47009E-06 0.48253E-06 0.44968E-06 0.42160E-06 0.43169E-06 0.46194E-06 0.48342E-06
 0.48659E-06 0.44334E-06 0.43169E-06 0.44775E-06 0.46332E-06 0.46726E-06 0.48601E-06 0.53519E-06 0.56128E-06 0.52185E-06
 0.52185E-06 0.56128E-06 0.53519E-06 0.48601E-06 0.46726E-06 0.46332E-06 0.44775E-06 0.43169E-06 0.44334E-06 0.48659E-06
 0.36485E-06 0.43709E-06 0.52190E-06 0.47143E-06 0.45218E-06 0.50830E-06 0.57639E-06 0.57106E-06 0.54154E-06 0.53996E-06
 0.53761E-06 0.53996E-06 0.54154E-06 0.57106E-06 0.57639E-06 0.50830E-06 0.45218E-06 0.47143E-06 0.52190E-06 0.43709E-06
 0.43709E-06 0.43709E-06 0.54637E-06 0.50786E-06 0.44718E-06 0.47926E-06 0.52672E-06 0.52294E-06 0.49206E-06 0.52212E-06
 0.55596E-06 0.55596E-06 0.52212E-06 0.49206E-06 0.52294E-06 0.52672E-06 0.47926E-06 0.44718E-06 0.50786E-06 0.54637E-06
 0.52190E-06 0.48365E-06 0.52190E-06 0.50786E-06 0.44807E-06 0.45884E-06 0.49585E-06 0.51012E-06 0.46520E-06 0.46457E-06
 0.53765E-06 0.56808E-06 0.53765E-06 0.46457E-06 0.46520E-06 0.51012E-06 0.49585E-06 0.45884E-06 0.44807E-06 0.50786E-06
 0.47143E-06 0.50020E-06 0.50020E-06 0.47143E-06 0.44718E-06 0.45884E-06 0.48198E-06 0.52090E-06 0.50287E-06 0.45197E-06
 0.47025E-06 0.48444E-06 0.48444E-06 0.47025E-06 0.45197E-06 0.50287E-06 0.52090E-06 0.48198E-06 0.45884E-06 0.44718E-06
 0.45218E-06 0.48051E-06 0.52493E-06 0.48051E-06 0.45218E-06 0.47926E-06 0.49585E-06 0.52090E-06 0.52249E-06 0.47306E-06
 0.45546E-06 0.42312E-06 0.38597E-06 0.42312E-06 0.45546E-06 0.47306E-06 0.52249E-06 0.52090E-06 0.49585E-06 0.47926E-06
 0.50830E-06 0.48095E-06 0.53503E-06 0.53503E-06 0.48095E-06 0.50830E-06 0.52672E-06 0.51012E-06 0.50287E-06 0.47306E-06
 0.46847E-06 0.44923E-06 0.38016E-06 0.38016E-06 0.44923E-06 0.46847E-06 0.47306E-06 0.50287E-06 0.51012E-06 0.52672E-06
 0.57639E-06 0.51936E-06 0.50121E-06 0.53786E-06 0.50121E-06 0.51936E-06 0.57639E-06 0.52294E-06 0.46520E-06 0.45197E-06
 0.45546E-06 0.44923E-06 0.40739E-06 0.38211E-06 0.40739E-06 0.44923E-06 0.45546E-06 0.45197E-06 0.46520E-06 0.52294E-06
 0.57106E-06 0.54833E-06 0.49578E-06 0.50649E-06 0.50649E-06 0.49578E-06 0.54833E-06 0.57106E-06 0.49206E-06 0.46457E-06
 0.47025E-06 0.42312E-06 0.38016E-06 0.38211E-06 0.38211E-06 0.38016E-06 0.42312E-06 0.47025E-06 0.46457E-06 0.49206E-06
 0.54154E-06 0.51999E-06 0.49654E-06 0.51384E-06 0.52095E-06 0.51384E-06 0.49654E-06 0.51999E-06 0.54154E-06 0.52212E-06
 0.53765E-06 0.48444E-06 0.38597E-06 0.38016E-06 0.40739E-06 0.38016E-06 0.38597E-06 0.48444E-06 0.53765E-06 0.52212E-06
 0.53996E-06 0.51322E-06 0.48865E-06 0.52195E-06 0.52397E-06 0.52397E-06 0.52195E-06 0.48865E-06 0.51322E-06 0.53996E-06
 0.55596E-06 0.56808E-06 0.48444E-06 0.42312E-06 0.44923E-06 0.44923E-06 0.42312E-06 0.48444E-06 0.56808E-06 0.55596E-06
 0.53761E-06 0.53241E-06 0.50655E-06 0.51455E-06 0.51801E-06 0.49677E-06 0.51801E-06 0.51455E-06 0.50655E-06 0.53241E-06
 0.53761E-06 0.55596E-06 0.53765E-06 0.47025E-06 0.45546E-06 0.46847E-06 0.45546E-06 0.47025E-06 0.53765E-06 0.55596E-06
 0.53996E-06 0.53241E-06 0.52085E-06 0.50615E-06 0.52542E-06 0.52153E-06 0.52153E-06 0.52542E-06 0.50615E-06 0.52085E-06
 0.53241E-06 0.53996E-06 0.52212E-06 0.46457E-06 0.45197E-06 0.47306E-06 0.47306E-06 0.45197E-06 0.46457E-06 0.52212E-06
 0.54154E-06 0.51322E-06 0.50655E-06 0.50615E-06 0.52883E-06 0.57067E-06 0.57844E-06 0.57067E-06 0.52883E-06 0.50615E-06
 0.50655E-06 0.51322E-06 0.54154E-06 0.49206E-06 0.46520E-06 0.50287E-06 0.52249E-06 0.50287E-06 0.46520E-06 0.49206E-06
 0.57106E-06 0.51999E-06 0.48865E-06 0.51455E-06 0.52542E-06 0.57067E-06 0.60793E-06 0.60793E-06 0.57067E-06 0.52542E-06
 0.51455E-06 0.48865E-06 0.51999E-06 0.57106E-06 0.52294E-06 0.51012E-06 0.52090E-06 0.52090E-06 0.51012E-06 0.52294E-06
 0.57639E-06 0.54833E-06 0.49654E-06 0.52195E-06 0.51801E-06 0.52153E-06 0.57844E-06 0.60793E-06 0.57844E-06 0.52153E-06
 0.51801E-06 0.52195E-06 0.49654E-06 0.54833E-06 0.57639E-06 0.52672E-06 0.49585E-06 0.48198E-06 0.49585E-06 0.52672E-06
 0.50830E-06 0.51936E-06 0.49578E-06 0.51384E-06 0.52397E-06 0.49677E-06 0.52153E-06 0.57067E-06 0.57067E-06 0.52153E-06
 0.49677E-06 0.52397E-06 0.51384E-06 0.49578E-06 0.51936E-06 0.50830E-06 0.47926E-06 0.45884E-06 0.45884E-06 0.47926E-06
 0.45218E-06 0.48095E-06 0.50121E-06 0.50649E-06 0.52095E-06 0.52397E-06 0.51801E-06 0.52542E-06 0.52883E-06 0.52542E-06
 0.51801E-06 0.52397E-06 0.52095E-06 0.50649E-06 0.50121E-06 0.48095E-06 0.45218E-06 0.44718E-06 0.44807E-06 0.44718E-06
 0.47143E-06 0.48051E-06 0.53503E-06 0.53786E-06 0.50649E-06 0.51384E-06 0.52195E-06 0.51455E-06 0.50615E-06 0.50615E-06
 0.51455E-06 0.52195E-06 0.51384E-06 0.50649E-06 0.53786E-06 0.53503E-06 0.48051E-06 0.47143E-06 0.50786E-06 0.50786E-06
 0.52190E-06 0.50020E-06 0.52493E-06 0.53503E-06 0.50121E-06 0.49578E-06 0.49654E-06 0.48865E-06 0.50655E-06 0.52085E-06
 0.50655E-06 0.48865E-06 0.49654E-06 0.49578E-06 0.50121E-06 0.53503E-06 0.52493E-06 0.50020E-06 0.52190E-06 0.54637E-06
 0.43709E-06 0.48365E-06 0.50020E-06 0.48051E-06 0.48095E-06 0.51936E-06 0.54833E-06 0.51999E-06 0.51322E-06 0.53241E-06
 0.53241E-06 0.51322E-06 0.51999E-06 0.54833E-06 0.51936E-06 0.48095E-06 0.48051E-06 0.50020E-06 0.48365E-06 0.43709E-06
 0.63827E-06 0.51897E-06 0.42478E-06 0.47083E-06 0.52968E-06 0.48170E-06 0.44618E-06 0.47386E-06 0.48362E-06 0.50763E-06
 0.54548E-06 0.50763E-06 0.48362E-06 0.47386E-06 0.44618E-06 0.48170E-06 0.52968E-06 0.47083E-06 0.42478E-06 0.51897E-06
 0.51897E-06 0.51897E-06 0.41048E-06 0.43086E-06 0.52965E-06 0.51101E-06 0.44697E-06 0.48292E-06 0.53849E-06 0.52710E-06
 0.52657E-06 0.52657E-06 0.52710E-06 0.53849E-06 0.48292E-06 0.44697E-06 0.51101E-06 0.52965E-06 0.43086E-06 0.41048E-06
 0.42478E-06 0.45977E-06 0.42478E-06 0.43086E-06 0.52430E-06 0.54887E-06 0.48791E-06 0.49237E-06 0.54110E-06 0.53715E-06
 0.49245E-06 0.46882E-06 0.49245E-06 0.53715E-06 0.54110E-06 0.49237E-06 0.48791E-06 0.54887E-06 0.52430E-06 0.43086E-06
 0.47083E-06 0.44966E-06 0.44966E-06 0.47083E-06 0.52965E-06 0.54887E-06 0.49615E-06 0.46939E-06 0.46739E-06 0.46404E-06
 0.46178E-06 0.44232E-06 0.44232E-06 0.46178E-06 0.46404E-06 0.46739E-06 0.46939E-06 0.49615E-06 0.54887E-06 0.52965E-06
 0.52968E-06 0.49825E-06 0.46617E-06 0.49825E-06 0.52968E-06 0.51101E-06 0.48791E-06 0.46939E-06 0.42206E-06 0.38962E-06
 0.41716E-06 0.45933E-06 0.47111E-06 0.45933E-06 0.41716E-06 0.38962E-06 0.42206E-06 0.46939E-06 0.48791E-06 0.51101E-06
 0.48170E-06 0.52874E-06 0.46654E-06 0.46654E-06 0.52874E-06 0.48170E-06 0.44697E-06 0.49237E-06 0.46739E-06 0.38962E-06
 0.38969E-06 0.43068E-06 0.44190E-06 0.44190E-06 0.43068E-06 0.38969E-06 0.38962E-06 0.46739E-06 0.49237E-06 0.44697E-06
 0.44618E-06 0.51486E-06 0.48333E-06 0.41150E-06 0.48333E-06 0.51486E-06 0.44618E-06 0.48292E-06 0.54110E-06 0.46404E-06
 0.41716E-06 0.43068E-06 0.39796E-06 0.36854E-06 0.39796E-06 0.43068E-06 0.41716E-06 0.46404E-06 0.54110E-06 0.48292E-06
 0.47386E-06 0.50090E-06 0.52901E-06 0.43708E-06 0.43708E-06 0.52901E-06 0.50090E-06 0.47386E-06 0.53849E-06 0.53715E-06
 0.46178E-06 0.45933E-06 0.44190E-06 0.36854E-06 0.36854E-06 0.44190E-06 0.45933E-06 0.46178E-06 0.53715E-06 0.53849E-06
 0.48362E-06 0.48239E-06 0.52782E-06 0.49533E-06 0.44346E-06 0.49533E-06 0.52782E-06 0.48239E-06 0.48362E-06 0.52710E-06
 0.49245E-06 0.44232E-06 0.47111E-06 0.44190E-06 0.39796E-06 0.44190E-06 0.47111E-06 0.44232E-06 0.49245E-06 0.52710E-06
 0.50763E-06 0.49503E-06 0.50871E-06 0.49721E-06 0.45308E-06 0.45308E-06 0.49721E-06 0.50871E-06 0.49503E-06 0.50763E-06
 0.52657E-06 0.46882E-06 0.44232E-06 0.45933E-06 0.43068E-06 0.43068E-06 0.45933E-06 0.44232E-06 0.46882E-06 0.52657E-06
 0.54548E-06 0.55667E-06 0.54068E-06 0.49061E-06 0.45579E-06 0.44563E-06 0.45579E-06 0.49061E-06 0.54068E-06 0.55667E-06
 0.54548E-06 0.52657E-06 0.49245E-06 0.46178E-06 0.41716E-06 0.38969E-06 0.41716E-06 0.46178E-06 0.49245E-06 0.52657E-06
 0.50763E-06 0.55667E-06 0.56941E-06 0.49084E-06 0.45279E-06 0.47022E-06 0.47022E-06 0.45279E-06 0.49084E-06 0.56941E-06
 0.55667E-06 0.50763E-06 0.52710E-06 0.53715E-06 0.46404E-06 0.38962E-06 0.38962E-06 0.46404E-06 0.53715E-06 0.52710E-06
 0.48362E-06 0.49503E-06 0.54068E-06 0.49084E-06 0.44348E-06 0.47155E-06 0.50022E-06 0.47155E-06 0.44348E-06 0.49084E-06
 0.54068E-06 0.49503E-06 0.48362E-06 0.53849E-06 0.54110E-06 0.46739E-06 0.42206E-06 0.46739E-06 0.54110E-06 0.53849E-06
 0.47386E-06 0.48239E-06 0.50871E-06 0.49061E-06 0.45279E-06 0.47155E-06 0.50207E-06 0.50207E-06 0.47155E-06 0.45279E-06
 0.49061E-06 0.50871E-06 0.48239E-06 0.47386E-06 0.48292E-06 0.49237E-06 0.46939E-06 0.46939E-06 0.49237E-06 0.48292E-06
 0.44618E-06 0.50090E-06 0.52782E-06 0.49721E-06 0.45579E-06 0.47022E-06 0.50022E-06 0.50207E-06 0.50022E-06 0.47022E-06
 0.45579E-06 0.49721E-06 0.52782E-06 0.50090E-06 0.44618E-06 0.44697E-06 0.48791E-06 0.49615E-06 0.48791E-06 0.44697E-06
 0.48170E-06 0.51486E-06 0.52901E-06 0.49533E-06 0.45308E-06 0.44563E-06 0.47022E-06 0.47155E-06 0.47155E-06 0.47022E-06
 0.44563E-06 0.45308E-06 0.49533E-06 0.52901E-06 0.51486E-06 0.48170E-06 0.51101E-06 0.54887E-06 0.54887E-06 0.51101E-06
 0.52968E-06 0.52874E-06 0.48333E-06 0.43708E-06 0.44346E-06 0.45308E-06 0.45579E-06 0.45279E-06 0.44348E-06 0.45279E-06
 0.45579E-06 0.45308E-06 0.44346E-06 0.43708E-06 0.48333E-06 0.52874E-06 0.52968E-06 0.52965E-06 0.52430E-06 0.52965E-06
 0.47083E-06 0.49825E-06 0.46654E-06 0.41150E-06 0.43708E-06 0.49533E-06 0.49721E-06 0.49061E-06 0.49084E-06 0.49084E-06
 0.49061E-06 0.49721E-06 0.49533E-06 0.43708E-06 0.41150E-06 0.46654E-06 0.49825E-06 0.47083E-06 0.43086E-06 0.43086E-06
 0.42478E-06 0.44966E-06 0.46617E-06 0.46654E-06 0.48333E-06 0.52901E-06 0.52782E-06 0.50871E-06 0.54068E-06 0.56941E-06
 0.54068E-06 0.50871E-06 0.52782E-06 0.52901E-06 0.48333E-06 0.46654E-06 0.46617E-06 0.44966E-06 0.42478E-06 0.41048E-06
 0.51897E-06 0.45977E-06 0.44966E-06 0.49825E-06 0.52874E-06 0.51486E-06 0.50090E-06 0.48239E-06 0.49503E-06 0.55667E-06
 0.55667E-06 0.49503E-06 0.48239E-06 0.50090E-06 0.51486E-06 0.52874E-06 0.49825E-06 0.44966E-06 0.45977E-06 0.51897E-06
 0.40218E-06 0.40965E-06 0.46417E-06 0.46144E-06 0.43562E-06 0.48687E-06 0.54042E-06 0.57389E-06 0.58480E-06 0.54220E-06
 0.51736E-06 0.54220E-06 0.58480E-06 0.57389E-06 0.54042E-06 0.48687E-06 0.43562E-06 0.46144E-06 0.46417E-06 0.40965E-06
 0.40965E-06 0.40965E-06 0.45280E-06 0.48429E-06 0.43141E-06 0.45644E-06 0.52761E-06 0.50960E-06 0.48626E-06 0.49458E-06
 0.53173E-06 0.53173E-06 0.49458E-06 0.48626E-06 0.50960E-06 0.52761E-06 0.45644E-06 0.43141E-06 0.48429E-06 0.45280E-06