VaspCalc                                
   1.00000000000000     
     3.199594    0.000000    0.000000
    -1.599797    2.770930    0.000000
     0.000000    0.000000   20.000000
   Mo   S 
     1     2
Direct
  0.000000  0.000000  0.000000
  0.333333  0.666667  0.078839
  0.666667  0.333333  0.921161
 
   28   28  162
 0.22421837406E+03 0.21686353607E+03 0.19832631464E+03 0.17615081993E+03 0.15583559565E+03
 0.13762714662E+03 0.11871151863E+03 0.97739764909E+02 0.76851296793E+02 0.59751471504E+02
 0.48514172159E+02 0.42259812122E+02 0.38986044935E+02 0.37620280117E+02 0.37281925094E+02
 0.37620275177E+02 0.38986035655E+02 0.42259799544E+02 0.48514157566E+02 0.59751456562E+02
 0.76851284571E+02 0.97739761098E+02 0.11871153100E+03 0.13762718160E+03 0.15583565327E+03
 0.17615089037E+03 0.19832637956E+03 0.21686357517E+03 0.21686357514E+03 0.21686355992E+03
 0.20397388881E+03 0.18396771459E+03 0.16347652333E+03 0.14509455344E+03 0.12707100809E+03
 0.10712438499E+03 0.85907578961E+02 0.66783157848E+02 0.52857432965E+02 0.44599640717E+02
 0.40116319761E+02 0.37985192121E+02 0.37243757516E+02 0.37243755586E+02 0.37985186694E+02
 0.40116311819E+02 0.44599631616E+02 0.52857424310E+02 0.66783151899E+02 0.85907579315E+02
 0.10712439652E+03 0.12707103520E+03 0.14509459702E+03 0.16347657826E+03 0.18396776965E+03
 0.20397392985E+03 0.19832637943E+03 0.20397392322E+03 0.19832636551E+03 0.18396774437E+03
 0.16631764778E+03 0.14908206797E+03 0.13211469248E+03 0.11346155269E+03 0.92873099477E+02
 0.72950951045E+02 0.57128983912E+02 0.46962785008E+02 0.41293284510E+02 0.38341969938E+02
 0.37134838565E+02 0.36841059877E+02 0.37134835819E+02 0.38341965135E+02 0.41293278855E+02
 0.46962779994E+02 0.57128981342E+02 0.72950953196E+02 0.92873108853E+02 0.11346157101E+03
 0.13211471928E+03 0.14908209992E+03 0.16631767938E+03 0.18396776956E+03 0.17615089013E+03
 0.18396776783E+03 0.18396777085E+03 0.17615089682E+03 0.16347658315E+03 0.14908209900E+03
 0.13380685574E+03 0.11662162046E+03 0.97179715226E+02 0.77451894041E+02 0.60714308007E+02
 0.49138820175E+02 0.42395759873E+02 0.38679901032E+02 0.36972592778E+02 0.36398856570E+02
 0.36398855583E+02 0.36972590088E+02 0.38679897412E+02 0.42395756484E+02 0.49138818425E+02
 0.60714309430E+02 0.77451899688E+02 0.97179724611E+02 0.11662163085E+03 0.13380686294E+03
 0.14908209984E+03 0.16347657808E+03 0.15583565296E+03 0.16347657648E+03 0.16631768543E+03
 0.16347660045E+03 0.15583569044E+03 0.14509463337E+03 0.13211474434E+03 0.11662164219E+03
 0.98627782488E+02 0.79804769584E+02 0.63087655049E+02 0.50827717442E+02 0.43298728055E+02
 0.38976315799E+02 0.36786410243E+02 0.35924200546E+02 0.35720779734E+02 0.35924199275E+02
 0.36786407965E+02 0.38976313092E+02 0.43298725824E+02 0.50827716752E+02 0.63087656401E+02
 0.79804771564E+02 0.98627780830E+02 0.11662163083E+03 0.13211471918E+03 0.14509459681E+03
 0.13762718130E+03 0.14509459233E+03 0.14908210158E+03 0.14908212078E+03 0.14509464222E+03
 0.13762724336E+03 0.12707109029E+03 0.11346160872E+03 0.97179744579E+02 0.79804779811E+02
 0.63916043208E+02 0.51753269753E+02 0.43901145146E+02 0.39200913922E+02 0.36613816827E+02
 0.35459209287E+02 0.35075259716E+02 0.35075259295E+02 0.35459207998E+02 0.36613814682E+02
 0.39200911162E+02 0.43901142314E+02 0.51753267255E+02 0.63916039904E+02 0.79804771584E+02
 0.97179724619E+02 0.11346157095E+03 0.12707103503E+03 0.11871153081E+03 0.12707102751E+03
 0.13211471295E+03 0.13380687161E+03 0.13211475291E+03 0.12707109268E+03 0.11871160010E+03
 0.10712445306E+03 0.92873146283E+02 0.77451920650E+02 0.63087667460E+02 0.51753274003E+02
 0.44114544855E+02 0.39323138740E+02 0.36492030935E+02 0.35077791349E+02 0.34501344429E+02
 0.34356735847E+02 0.34501343814E+02 0.35077789869E+02 0.36492028291E+02 0.39323134814E+02
 0.44114539750E+02 0.51753267281E+02 0.63087656452E+02 0.77451899746E+02 0.92873108875E+02
 0.10712439645E+03 0.97739761053E+02 0.10712438770E+03 0.11346155869E+03 0.11662162598E+03
 0.11662164472E+03 0.11346160812E+03 0.10712445132E+03 0.97739821456E+02 0.85907625836E+02
 0.72950983940E+02 0.60714328260E+02 0.50827728702E+02 0.43901150617E+02 0.39323140566E+02
 0.36448150731E+02 0.34860705398E+02 0.34091779719E+02 0.33793717884E+02 0.33793717662E+02
 0.34091778871E+02 0.34860703457E+02 0.36448147135E+02 0.39323134834E+02 0.43901142360E+02
 0.50827716827E+02 0.60714309529E+02 0.72950953293E+02 0.85907579364E+02 0.76851284660E+02
 0.85907571463E+02 0.92873094991E+02 0.97179711562E+02 0.98627777936E+02 0.97179738773E+02
 0.92873140385E+02 0.85907621915E+02 0.76851329275E+02 0.66783185822E+02 0.57129004900E+02
 0.49138834492E+02 0.43298736917E+02 0.39200918490E+02 0.36492032692E+02 0.34860705798E+02
 0.33941893242E+02 0.33474578105E+02 0.33330312058E+02 0.33474577725E+02 0.33941892182E+02
 0.34860703477E+02 0.36492028330E+02 0.39200911224E+02 0.43298725913E+02 0.49138818545E+02
 0.57128981483E+02 0.66783152034E+02 0.59751456730E+02 0.66783146144E+02 0.72950941411E+02
 0.77451885080E+02 0.79804760142E+02 0.79804769596E+02 0.77451910485E+02 0.72950975491E+02
 0.66783180933E+02 0.59751486780E+02 0.52857447855E+02 0.46962797263E+02 0.42395768465E+02
 0.38976320610E+02 0.36613818866E+02 0.35077791932E+02 0.34091779796E+02 0.33474578109E+02
 0.33165446227E+02 0.33165446126E+02 0.33474577743E+02 0.34091778909E+02 0.35077789927E+02
 0.36613814761E+02 0.38976313193E+02 0.42395756612E+02 0.46962780150E+02 0.52857424484E+02
 0.48514157758E+02 0.52857420748E+02 0.57128973075E+02 0.60714297414E+02 0.63087643713E+02
 0.63916030777E+02 0.63087654488E+02 0.60714316115E+02 0.57128995360E+02 0.52857442564E+02
 0.48514176449E+02 0.44599646112E+02 0.41293288531E+02 0.38679902701E+02 0.36786410116E+02
 0.35459208481E+02 0.34501343773E+02 0.33793717644E+02 0.33330312114E+02 0.33165446242E+02
 0.33330312091E+02 0.33793717715E+02 0.34501343888E+02 0.35459208093E+02 0.36786408080E+02
 0.38679897547E+02 0.41293279012E+02 0.44599631795E+02 0.42259799733E+02 0.44599629912E+02
 0.46962775142E+02 0.49138810239E+02 0.50827706450E+02 0.51753257175E+02 0.51753260056E+02
 0.50827714396E+02 0.49138821416E+02 0.46962787200E+02 0.44599640607E+02 0.42259807298E+02
 0.40116315565E+02 0.38341965265E+02 0.36972587959E+02 0.35924196542E+02 0.35075257202E+02
 0.34356734829E+02 0.33793717656E+02 0.33474578135E+02 0.33474578148E+02 0.33793717948E+02
 0.34356735932E+02 0.35075259402E+02 0.35924199401E+02 0.36972590232E+02 0.38341965295E+02
 0.40116311994E+02 0.38986035837E+02 0.40116311705E+02 0.41293276977E+02 0.42395751973E+02
 0.43298718819E+02 0.43901133896E+02 0.44114531492E+02 0.43901135752E+02 0.43298721813E+02
 0.42395754813E+02 0.41293278119E+02 0.40116309905E+02 0.38986030727E+02 0.37985179215E+02
 0.37134827449E+02 0.36398848198E+02 0.35720774654E+02 0.35075257211E+02 0.34501343794E+02
 0.34091779831E+02 0.33941893293E+02 0.34091779790E+02 0.34501344521E+02 0.35075259829E+02
 0.35720779867E+02 0.36398855732E+02 0.37134835982E+02 0.37985186868E+02 0.37620275354E+02
 0.37985187987E+02 0.38341965959E+02 0.38679896369E+02 0.38976309498E+02 0.39200905211E+02
 0.39323127288E+02 0.39323126637E+02 0.39200902971E+02 0.38976304924E+02 0.38679888613E+02
 0.38341954581E+02 0.37985173434E+02 0.37620259128E+02 0.37243740111E+02 0.36841047236E+02
 0.36398848204E+02 0.35924196556E+02 0.35459208508E+02 0.35077791973E+02 0.34860705855E+02
 0.34860705473E+02 0.35077791444E+02 0.35459209403E+02 0.35924200680E+02 0.36398856721E+02
 0.36841060040E+02 0.37243755758E+02 0.37281925268E+02 0.37243758151E+02 0.37134839165E+02
 0.36972592481E+02 0.36786408048E+02 0.36613811859E+02 0.36492022678E+02 0.36448139170E+02
 0.36492018368E+02 0.36613802865E+02 0.36786393989E+02 0.36972573542E+02 0.37134816572E+02
 0.37243734258E+02 0.37281903111E+02 0.37243740113E+02 0.37134827456E+02 0.36972587976E+02
 0.36786410145E+02 0.36613818910E+02 0.36492032754E+02 0.36448150811E+02 0.36492031035E+02
 0.36613816947E+02 0.36786410381E+02 0.36972592930E+02 0.37134838729E+02 0.37243757687E+02
 0.37620280289E+02 0.37243761295E+02 0.36841065642E+02 0.36398861459E+02 0.35924203451E+02
 0.35459209181E+02 0.35077787514E+02 0.34860697568E+02 0.34860694212E+02 0.35077777344E+02
 0.35459192141E+02 0.35924180117E+02 0.36398833591E+02 0.36841036283E+02 0.37243734255E+02
 0.37620259128E+02 0.37985179221E+02 0.38341965280E+02 0.38679902728E+02 0.38976320653E+02
 0.39200918552E+02 0.39323140649E+02 0.39323138844E+02 0.39200914048E+02 0.38976315943E+02
 0.38679901190E+02 0.38341970105E+02 0.37985192293E+02 0.38986045108E+02 0.37985197158E+02
 0.37134846730E+02 0.36398865940E+02 0.35720788303E+02 0.35075265279E+02 0.34501346027E+02
 0.34091776814E+02 0.33941885782E+02 0.34091768225E+02 0.34501329023E+02 0.35075240672E+02
 0.35720758112E+02 0.36398833584E+02 0.37134816563E+02 0.37985173427E+02 0.38986030726E+02
 0.40116315575E+02 0.41293288552E+02 0.42395768502E+02 0.43298736972E+02 0.43901150693E+02
 0.44114544956E+02 0.43901145272E+02 0.43298728203E+02 0.42395760039E+02 0.41293284684E+02
 0.40116319938E+02 0.42259812300E+02 0.40116326197E+02 0.38341980590E+02 0.36972605587E+02
 0.35924213485E+02 0.35075270817E+02 0.34356743464E+02 0.33793720757E+02 0.33474575868E+02
 0.33474570896E+02 0.33793706079E+02 0.34356720009E+02 0.35075240660E+02 0.35924180098E+02
 0.36972573521E+02 0.38341954563E+02 0.40116309895E+02 0.42259807299E+02 0.44599646124E+02
 0.46962797288E+02 0.49138834529E+02 0.50827728754E+02 0.51753274076E+02 0.51753269854E+02
 0.50827717574E+02 0.49138820335E+02 0.46962785186E+02 0.44599640900E+02 0.48514172338E+02
 0.44599648740E+02 0.41293297843E+02 0.38679917234E+02 0.36786427232E+02 0.35459225184E+02
 0.34501357484E+02 0.33793726676E+02 0.33330315715E+02 0.33165444330E+02 0.33330304970E+02
 0.33793706064E+02 0.34501328996E+02 0.35459192106E+02 0.36786393952E+02 0.38679888579E+02
 0.41293278095E+02 0.44599640597E+02 0.48514176452E+02 0.52857447867E+02 0.57129004911E+02
 0.60714328268E+02 0.63087667470E+02 0.63916043236E+02 0.63087655112E+02 0.60714308114E+02
 0.57128984061E+02 0.52857433139E+02 0.59751471659E+02 0.52857442752E+02 0.46962801256E+02
 0.42395779499E+02 0.38976336432E+02 0.36613836745E+02 0.35077809071E+02 0.34091793834E+02
 0.33474587431E+02 0.33165450027E+02 0.33165444312E+02 0.33474570865E+02 0.34091768181E+02
 0.35077777292E+02 0.36613802809E+02 0.38976304871E+02 0.42395754771E+02 0.46962787176E+02
 0.52857442559E+02 0.59751486784E+02 0.66783185815E+02 0.72950983904E+02 0.77451920582E+02
 0.79804779729E+02 0.79804769520E+02 0.77451894028E+02 0.72950951101E+02 0.66783157966E+02
 0.76851296873E+02 0.66783169370E+02 0.57129003211E+02 0.49138843274E+02 0.43298752007E+02
 0.39200936979E+02 0.36492052067E+02 0.34860723662E+02 0.33941907553E+02 0.33474587412E+02
 0.33330315679E+02 0.33474575818E+02 0.33941885721E+02 0.34860694141E+02 0.36492018292E+02
 0.39200902896E+02 0.43298721749E+02 0.49138821376E+02 0.57128995351E+02 0.66783180943E+02
 0.76851329274E+02 0.85907625786E+02 0.92873146162E+02 0.97179744394E+02 0.98627782278E+02
 0.97179715046E+02 0.92873099375E+02 0.85907578957E+02 0.97739764860E+02 0.85907591283E+02
 0.72950972595E+02 0.60714334114E+02 0.50827744276E+02 0.43901170534E+02 0.39323161901E+02
 0.36448171467E+02 0.34860723643E+02 0.34091793796E+02 0.33793726620E+02 0.33793720686E+02
 0.34091776733E+02 0.34860697479E+02 0.36448139073E+02 0.39323126538E+02 0.43901135663E+02
 0.50827714336E+02 0.60714316103E+02 0.72950975521E+02 0.85907621953E+02 0.97739821444E+02
 0.10712445295E+03 0.11346160849E+03 0.11662164187E+03 0.11662162013E+03 0.11346155241E+03
 0.10712438482E+03 0.11871151843E+03 0.10712439553E+03 0.92873119967E+02 0.77451920396E+02
 0.63087682932E+02 0.51753296202E+02 0.44114568649E+02 0.39323161882E+02 0.36492052030E+02
 0.35077809015E+02 0.34501357409E+02 0.34356743374E+02 0.34501345926E+02 0.35077787406E+02
 0.36492022561E+02 0.39323127166E+02 0.44114531375E+02 0.51753259970E+02 0.63087654466E+02
 0.77451910539E+02 0.92873140484E+02 0.10712445140E+03 0.11871160007E+03 0.12707109012E+03
 0.13211474403E+03 0.13380685534E+03 0.13211469208E+03 0.12707100776E+03 0.13762714631E+03
 0.12707101279E+03 0.11346156551E+03 0.97179734849E+02 0.79804792909E+02 0.63916067050E+02
 0.51753296178E+02 0.43901170492E+02 0.39200936922E+02 0.36613836670E+02 0.35459225091E+02
 0.35075270708E+02 0.35075265159E+02 0.35459209054E+02 0.36613811725E+02 0.39200905068E+02
 0.43901133752E+02 0.51753257058E+02 0.63916030733E+02 0.79804769658E+02 0.97179738930E+02
 0.11346160830E+03 0.12707109279E+03 0.13762724333E+03 0.14509463316E+03 0.14908209864E+03
 0.14908206754E+03 0.14509455304E+03 0.15583559533E+03 0.14509454829E+03 0.13211468939E+03
 0.11662162260E+03 0.98627790697E+02 0.79804792889E+02 0.63087682883E+02 0.50827744206E+02
 0.43298751924E+02 0.38976336337E+02 0.36786427122E+02 0.35924213360E+02 0.35720788167E+02
 0.35924203308E+02 0.36786407898E+02 0.38976309339E+02 0.43298718653E+02 0.50827706300E+02
 0.63087643632E+02 0.79804760184E+02 0.98627778117E+02 0.11662164499E+03 0.13211475317E+03
 0.14509464236E+03 0.15583569041E+03 0.16347658293E+03 0.16631764744E+03 0.16347652296E+03
 0.17615081967E+03 0.16347650679E+03 0.14908204332E+03 0.13380683030E+03 0.11662162262E+03
 0.97179734839E+02 0.77451920339E+02 0.60714334020E+02 0.49138843163E+02 0.42395779379E+02
 0.38679917105E+02 0.36972605448E+02 0.36398865791E+02 0.36398861303E+02 0.36972592319E+02
 0.38679896198E+02 0.42395751792E+02 0.49138810061E+02 0.60714297288E+02 0.77451885073E+02
 0.97179711718E+02 0.11662162628E+03 0.13380687197E+03 0.14908212108E+03 0.16347660060E+03
 0.17615089679E+03 0.18396774419E+03 0.18396771433E+03 0.19832631450E+03 0.18396768921E+03
 0.16631760302E+03 0.14908204339E+03 0.13211468948E+03 0.11346156556E+03 0.92873119942E+02
 0.72950972502E+02 0.57129003079E+02 0.46962801111E+02 0.41293297695E+02 0.38341980437E+02
 0.37134846570E+02 0.36841065476E+02 0.37134838996E+02 0.38341965782E+02 0.41293276789E+02
 0.46962774948E+02 0.57128972909E+02 0.72950941338E+02 0.92873095076E+02 0.11346155895E+03
 0.13211471333E+03 0.14908210198E+03 0.16631768573E+03 0.18396777099E+03 0.19832636550E+03
 0.20397388869E+03 0.21686353603E+03 0.20397386071E+03 0.18396768930E+03 0.16347650697E+03
 0.14509454850E+03 0.12707101295E+03 0.10712439560E+03 0.85907591235E+02 0.66783169244E+02
 0.52857442590E+02 0.44599648572E+02 0.40116326031E+02 0.37985196990E+02 0.37243761124E+02
 0.37243757978E+02 0.37985187808E+02 0.40116311518E+02 0.44599629715E+02 0.52857420559E+02
 0.66783146012E+02 0.85907571456E+02 0.10712438786E+03 0.12707102782E+03 0.14509459272E+03
 0.16347657683E+03 0.18396776806E+03 0.20397392332E+03 0.21686355992E+03 0.21526655779E+03
 0.20866704771E+03 0.19199997046E+03 0.17191159479E+03 0.15312469372E+03 0.13567885059E+03
 0.11707457269E+03 0.96394155381E+02 0.75969371547E+02 0.59414678427E+02 0.48618365540E+02
 0.42605131350E+02 0.39466980728E+02 0.38172064225E+02 0.37854735655E+02 0.38172056107E+02
 0.39466965230E+02 0.42605109624E+02 0.48618338760E+02 0.59414647969E+02 0.75969340597E+02
 0.96394131176E+02 0.11707456653E+03 0.13567887351E+03 0.15312474897E+03 0.17191167193E+03
 0.19200004617E+03 0.20866709472E+03 0.20866709471E+03 0.20866707754E+03 0.19775134621E+03
 0.18065410363E+03 0.16264216471E+03 0.14547626278E+03 0.12746512052E+03 0.10697522321E+03
 0.85299734036E+02 0.66053922353E+02 0.52235989841E+02 0.44096230376E+02 0.39657580194E+02
 0.37552359571E+02 0.36818946850E+02 0.36818943584E+02 0.37552350189E+02 0.39657565757E+02
 0.44096212157E+02 0.52235969020E+02 0.66053900478E+02 0.85299714553E+02 0.10697521257E+03
 0.12746512680E+03 0.14547629129E+03 0.16264221298E+03 0.18065415941E+03 0.19775139102E+03
 0.19200004610E+03 0.19641852926E+03 0.19200003342E+03 0.18065413904E+03 0.16623955646E+03
 0.15103552800E+03 0.13440196186E+03 0.11487338936E+03 0.93091242588E+02 0.72303268277E+02
 0.56087194708E+02 0.45798585371E+02 0.40045442701E+02 0.37036256203E+02 0.35790983290E+02
 0.35482714791E+02 0.35790978393E+02 0.37036247148E+02 0.40045430656E+02 0.45798571522E+02
 0.56087180027E+02 0.72303253911E+02 0.93091230746E+02 0.11487338348E+03 0.13440196523E+03
 0.15103554146E+03 0.16623957675E+03 0.18065415935E+03 0.17191167177E+03 0.17739265433E+03
 0.17739265964E+03 0.17191168595E+03 0.16264223177E+03 0.15103556080E+03 0.13686230756E+03
 0.11911843748E+03 0.98265993654E+02 0.77164303137E+02 0.59541907353E+02 0.47532484077E+02
 0.40544601205E+02 0.36654664170E+02 0.34834810592E+02 0.34201191787E+02 0.34201189964E+02
 0.34834805423E+02 0.36654656437E+02 0.40544591891E+02 0.47532474047E+02 0.59541896933E+02
 0.77164292025E+02 0.98265981166E+02 0.11911842282E+03 0.13686229022E+03 0.15103554141E+03
 0.16264221286E+03 0.15312474876E+03 0.15787754664E+03 0.15953998066E+03 0.15787757705E+03
 0.15312479922E+03 0.14547634662E+03 0.13440201319E+03 0.11911845767E+03 0.10008090196E+03
 0.79824270867E+02 0.61945957682E+02 0.48981494240E+02 0.41036102516E+02 0.36408735046E+02
 0.34012429441E+02 0.33021896535E+02 0.32773898347E+02 0.33021894057E+02 0.34012424794E+02
 0.36408728755E+02 0.41036095181E+02 0.48981486191E+02 0.61945948034E+02 0.79824256931E+02
 0.10008087955E+03 0.11911842280E+03 0.13440196517E+03 0.14547629115E+03 0.13567887331E+03
 0.14035128597E+03 0.14243793873E+03 0.14243796105E+03 0.14035134505E+03 0.13567894988E+03
 0.12746520008E+03 0.11487344034E+03 0.98266018387E+02 0.79824278586E+02 0.62808214272E+02
 0.49812294572E+02 0.41402904465E+02 0.36275310116E+02 0.33379585744E+02 0.32014059428E+02
 0.31520002976E+02 0.31520002152E+02 0.32014056973E+02 0.33379581719E+02 0.36275304643E+02
 0.41402897707E+02 0.49812286153E+02 0.62808201775E+02 0.79824256950E+02 0.98265981182E+02
 0.11487338345E+03 0.12746512669E+03 0.11707456641E+03 0.12319901643E+03 0.12620722469E+03
 0.12707598607E+03 0.12620726909E+03 0.12319909002E+03 0.11707464699E+03 0.10697528158E+03
 0.93091279753E+02 0.77164322131E+02 0.61945965316E+02 0.49812296742E+02 0.41540459090E+02
 0.36220799459E+02 0.32980769367E+02 0.31266263621E+02 0.30501733792E+02 0.30292589396E+02
 0.30501732746E+02 0.31266261363E+02 0.32980765633E+02 0.36220793977E+02 0.41540451598E+02
 0.49812286175E+02 0.61945948080E+02 0.77164292081E+02 0.93091230780E+02 0.10697521254E+03
 0.96394131164E+02 0.10430872240E+03 0.10895798812E+03 0.11098626916E+03 0.11098628887E+03
 0.10895804033E+03 0.10430879025E+03 0.96394196531E+02 0.85299765832E+02 0.72303288338E+02
 0.59541918037E+02 0.48981499259E+02 0.41402906476E+02 0.36220799875E+02 0.32844559444E+02
 0.30865205440E+02 0.29823212942E+02 0.29384154433E+02 0.29384154144E+02 0.29823211948E+02
 0.30865203377E+02 0.32844555779E+02 0.36220793995E+02 0.41402897747E+02 0.48981486258E+02
 0.59541897022E+02 0.72303254001E+02 0.85299714611E+02 0.75969340685E+02 0.84315709186E+02
 0.90206048277E+02 0.93532030168E+02 0.94583205639E+02 0.93532056733E+02 0.90206092534E+02
 0.84315758188E+02 0.75969383618E+02 0.66053932474E+02 0.56087201488E+02 0.47532488054E+02
 0.41036104456E+02 0.36275310446E+02 0.32980768883E+02 0.30865204976E+02 0.29583478277E+02
 0.28891308924E+02 0.28670910696E+02 0.28891308695E+02 0.29583477605E+02 0.30865203396E+02
 0.32980765670E+02 0.36275304699E+02 0.41036095261E+02 0.47532474152E+02 0.56087180152E+02
 0.66053900601E+02 0.59414648118E+02 0.66371031668E+02 0.72123383239E+02 0.76068490596E+02
 0.78029329857E+02 0.78029337981E+02 0.76068512267E+02 0.72123411844E+02 0.66371060061E+02
 0.59414671606E+02 0.52235986401E+02 0.45798583435E+02 0.40544599463E+02 0.36408732782E+02
 0.33379583292E+02 0.31266261615E+02 0.29823211729E+02 0.28891308463E+02 0.28422360398E+02
 0.28422360489E+02 0.28891308713E+02 0.29823211985E+02 0.31266261418E+02 0.33379581791E+02
 0.36408728847E+02 0.40544592005E+02 0.45798571660E+02 0.52235969173E+02 0.48618338929E+02
 0.53353175645E+02 0.57763852713E+02 0.61282032106E+02 0.63513837339E+02 0.64273567550E+02
 0.63513844351E+02 0.61282043954E+02 0.57763866164E+02 0.53353187850E+02 0.48618348258E+02
 0.44096218209E+02 0.40045433156E+02 0.36654655950E+02 0.34012422544E+02 0.32014054280E+02
 0.30501730543E+02 0.29384152786E+02 0.28670910109E+02 0.28422360414E+02 0.28670910731E+02
 0.29384154198E+02 0.30501732819E+02 0.32014057063E+02 0.34012424901E+02 0.36654656561E+02
 0.40045430798E+02 0.44096212316E+02 0.42605109793E+02 0.45646151004E+02 0.48540070186E+02
 0.51055986898E+02 0.52919529744E+02 0.53909668341E+02 0.53909669008E+02 0.52919531423E+02
 0.51055988749E+02 0.48540071157E+02 0.45646150105E+02 0.42605106241E+02 0.39657559550E+02
 0.37036238927E+02 0.34834796680E+02 0.33021886347E+02 0.31519996485E+02 0.30292585967E+02
 0.29384152800E+02 0.28891308494E+02 0.28891308972E+02 0.29384154500E+02 0.30292589482E+02
 0.31520002256E+02 0.33021894178E+02 0.34834805558E+02 0.37036247296E+02 0.39657565916E+02
 0.39466965398E+02 0.41457631287E+02 0.43390418101E+02 0.45104485185E+02 0.46449000660E+02
 0.47311730983E+02 0.47610471529E+02 0.47311728190E+02 0.46448995027E+02 0.45104476556E+02
 0.43390406237E+02 0.41457616182E+02 0.39466947706E+02 0.37552331573E+02 0.35790960746E+02
 0.34201175245E+02 0.32773887727E+02 0.31519996498E+02 0.30501730570E+02 0.29823211772E+02
 0.29583478337E+02 0.29823213019E+02 0.30501733888E+02 0.31520003090E+02 0.32773898478E+02
 0.34201190108E+02 0.35790978548E+02 0.37552350351E+02 0.38172056274E+02 0.39500227052E+02
 0.40751620998E+02 0.41866387038E+02 0.42781554212E+02 0.43436121723E+02 0.43778651701E+02
 0.43778648517E+02 0.43436112212E+02 0.42781538523E+02 0.41866365568E+02 0.40751594650E+02
 0.39500197515E+02 0.38172026060E+02 0.36818915800E+02 0.35482691881E+02 0.34201175255E+02
 0.33021886370E+02 0.32014054318E+02 0.31266261669E+02 0.30865205047E+02 0.30865205528E+02
 0.31266263726E+02 0.32014059550E+02 0.33021896672E+02 0.34201191937E+02 0.35482714949E+02
 0.36818943749E+02 0.37854735824E+02 0.38836931036E+02 0.39712759397E+02 0.40444596459E+02
 0.41013073983E+02 0.41414097068E+02 0.41651496294E+02 0.41729997632E+02 0.41651486614E+02
 0.41414077949E+02 0.41013046141E+02 0.40444561427E+02 0.39712719773E+02 0.38836890393E+02
 0.37854698152E+02 0.36818915806E+02 0.35790960762E+02 0.34834796710E+02 0.34012422590E+02
 0.33379583355E+02 0.32980768965E+02 0.32844559543E+02 0.32980769484E+02 0.33379585876E+02
 0.34012429587E+02 0.34834810747E+02 0.35790983453E+02 0.36818947017E+02 0.38172064394E+02
 0.38836936053E+02 0.39471584699E+02 0.40002957550E+02 0.40383678992E+02 0.40608383642E+02
 0.40711525631E+02 0.40744630925E+02 0.40744624634E+02 0.40711506973E+02 0.40608353440E+02
 0.40383639089E+02 0.40002911127E+02 0.39471536170E+02 0.38836890394E+02 0.38172026067E+02
 0.37552331591E+02 0.37036238959E+02 0.36654656000E+02 0.36408732851E+02 0.36275310535E+02
 0.36220799985E+02 0.36220799588E+02 0.36275310262E+02 0.36408735204E+02 0.36654664336E+02
 0.37036256372E+02 0.37552359742E+02 0.39466980900E+02 0.39500241729E+02 0.39712771216E+02
 0.40002964446E+02 0.40254483788E+02 0.40390052423E+02 0.40406135621E+02 0.40363689796E+02
 0.40338387318E+02 0.40363675027E+02 0.40406106863E+02 0.40390011582E+02 0.40254434271E+02
 0.40002911122E+02 0.39712719769E+02 0.39500197518E+02 0.39466947721E+02 0.39657559580E+02
 0.40045433204E+02 0.40544599531E+02 0.41036104545E+02 0.41402906588E+02 0.41540459224E+02
 0.41402904619E+02 0.41036102686E+02 0.40544601384E+02 0.40045442882E+02 0.39657580373E+02
 0.42605131528E+02 0.41457654686E+02 0.40751643885E+02 0.40444616646E+02 0.40383694320E+02
 0.40390060861E+02 0.40349432708E+02 0.40254477003E+02 0.40173819122E+02 0.40173810869E+02
 0.40254452780E+02 0.40349394290E+02 0.40390011572E+02 0.40383639074E+02 0.40444561413E+02
 0.40751594644E+02 0.41457616189E+02 0.42605106266E+02 0.44096218252E+02 0.45798583496E+02
 0.47532488132E+02 0.48981499353E+02 0.49812296856E+02 0.49812294709E+02 0.48981494400E+02
 0.47532484256E+02 0.45798585561E+02 0.44096230563E+02 0.48618365719E+02 0.45646181999E+02
 0.43390450904E+02 0.41866419258E+02 0.41013103408E+02 0.40608408142E+02 0.40406153208E+02
 0.40254486166E+02 0.40129305982E+02 0.40077701129E+02 0.40129288566E+02 0.40254452766E+02
 0.40406106839E+02 0.40608353411E+02 0.41013046112E+02 0.41866365548E+02 0.43390406232E+02
 0.45646150120E+02 0.48618348292E+02 0.52235986449E+02 0.56087201540E+02 0.59541918088E+02
 0.61945965368E+02 0.62808214338E+02 0.61945957776E+02 0.59541907483E+02 0.56087194871E+02
 0.52235990022E+02 0.59414678581E+02 0.53353213087E+02 0.48540111738E+02 0.45104527955E+02
 0.42781595826E+02 0.41414135531E+02 0.40711559034E+02 0.40363716316E+02 0.40173837316E+02
 0.40077710219E+02 0.40077701112E+02 0.40173810839E+02 0.40363674986E+02 0.40711506927E+02
 0.41414077902E+02 0.42781538485E+02 0.45104476535E+02 0.48540071158E+02 0.53353187875E+02
 0.59414671641E+02 0.66053932499E+02 0.72303288334E+02 0.77164322094E+02 0.79824278530E+02
 0.79824270825E+02 0.77164303139E+02 0.72303268341E+02 0.66053922473E+02 0.75969371616E+02
 0.66371073265E+02 0.57763901441E+02 0.51056038768E+02 0.46449052519E+02 0.43436171530E+02
 0.41651542560E+02 0.40744672141E+02 0.40338421867E+02 0.40173837297E+02 0.40129305946E+02
 0.40173819073E+02 0.40338387259E+02 0.40744624569E+02 0.41651486548E+02 0.43436112152E+02
 0.46448994984E+02 0.51055988733E+02 0.57763866179E+02 0.66371060092E+02 0.75969383631E+02
 0.85299765790E+02 0.93091279635E+02 0.98266018202E+02 0.10008090174E+03 0.98265993467E+02
 0.93091242476E+02 0.85299734021E+02 0.96394155304E+02 0.84315748776E+02 0.72123434841E+02
 0.61282090312E+02 0.52919589715E+02 0.47311789572E+02 0.43778707465E+02 0.41730049799E+02
 0.40744672122E+02 0.40363716277E+02 0.40254486110E+02 0.40254476933E+02 0.40363689717E+02
 0.40744630840E+02 0.41729997545E+02 0.43778648434E+02 0.47311728121E+02 0.52919531385E+02
 0.61282043958E+02 0.72123411880E+02 0.84315758216E+02 0.96394196494E+02 0.10697528144E+03
 0.11487344007E+03 0.11911845732E+03 0.11911843711E+03 0.11487338904E+03 0.10697522300E+03
 0.11707457245E+03 0.10430874806E+03 0.90206092512E+02 0.76068547749E+02 0.63513900672E+02
 0.53909732452E+02 0.47610533408E+02 0.43778707446E+02 0.41651542523E+02 0.40711558978E+02
 0.40406153133E+02 0.40349432618E+02 0.40406135522E+02 0.40711525527E+02 0.41651496187E+02
 0.43778651594E+02 0.47610471433E+02 0.53909668943E+02 0.63513844340E+02 0.76068512312E+02
 0.90206092598E+02 0.10430879027E+03 0.11707464689E+03 0.12746519983E+03 0.13440201280E+03
 0.13686230708E+03 0.13440196138E+03 0.12746512013E+03 0.13567885023E+03 0.12319901294E+03
 0.10895800858E+03 0.93532071686E+02 0.78029385699E+02 0.64273630149E+02 0.53909732430E+02
 0.47311789531E+02 0.43436171474E+02 0.41414135457E+02 0.40608408049E+02 0.40390060752E+02
 0.40390052305E+02 0.40608383519E+02 0.41414096942E+02 0.43436121595E+02 0.47311730860E+02
 0.53909668245E+02 0.64273567514E+02 0.78029338025E+02 0.93532056834E+02 0.10895804043E+03
 0.12319909002E+03 0.13567894973E+03 0.14547634630E+03 0.15103556035E+03 0.15103552749E+03
 0.14547626230E+03 0.15312469333E+03 0.14035124273E+03 0.12620720478E+03 0.11098627592E+03
 0.94583236343E+02 0.78029385684E+02 0.63513900629E+02 0.52919589649E+02 0.46449052439E+02
 0.42781595733E+02 0.41013103299E+02 0.40383694195E+02 0.40254483653E+02 0.40383678853E+02
 0.41013073841E+02 0.42781554067E+02 0.46449000515E+02 0.52919529617E+02 0.63513837269E+02
 0.78029329880E+02 0.94583205757E+02 0.11098628903E+03 0.12620726921E+03 0.14035134505E+03
 0.15312479906E+03 0.16264223145E+03 0.16623955603E+03 0.16264216426E+03 0.17191159448E+03
 0.15787746696E+03 0.14243787246E+03 0.12707594390E+03 0.11098627595E+03 0.93532071691E+02
 0.76068547703E+02 0.61282090226E+02 0.51056038661E+02 0.45104527839E+02 0.41866419131E+02
 0.40444616508E+02 0.40002964299E+02 0.40002957398E+02 0.40444596305E+02 0.41866386881E+02
 0.45104485024E+02 0.51055986745E+02 0.61282031995E+02 0.76068490577E+02 0.93532030266E+02
 0.11098626935E+03 0.12707598628E+03 0.14243796119E+03 0.15787757707E+03 0.17191168582E+03
 0.18065413878E+03 0.18065410331E+03 0.19199997029E+03 0.17739255938E+03 0.15953988143E+03
 0.14243787255E+03 0.12620720491E+03 0.10895800866E+03 0.90206092510E+02 0.72123434762E+02
 0.57763901316E+02 0.48540111598E+02 0.43390450759E+02 0.40751643734E+02 0.39712771058E+02
 0.39471584538E+02 0.39712759234E+02 0.40751620833E+02 0.43390417932E+02 0.48540070017E+02
 0.57763852568E+02 0.72123383167E+02 0.90206048322E+02 0.10895798829E+03 0.12620722493E+03
 0.14243793896E+03 0.15953998082E+03 0.17739265967E+03 0.19200003334E+03 0.19775134605E+03
 0.20866704766E+03 0.19641845188E+03 0.17739255948E+03 0.15787746718E+03 0.14035124299E+03
 0.12319901316E+03 0.10430874816E+03 0.84315748750E+02 0.66371073148E+02 0.53353212929E+02
 0.45646181834E+02 0.41457654521E+02 0.39500241564E+02 0.38836935886E+02 0.38836930869E+02
 0.39500226884E+02 0.41457631117E+02 0.45646150831E+02 0.53353175479E+02 0.66371031548E+02
 0.84315709159E+02 0.10430872250E+03 0.12319901663E+03 0.14035128622E+03 0.15787754686E+03
 0.17739265447E+03 0.19641852930E+03 0.20866707750E+03 0.19385337401E+03 0.18904035960E+03
 0.17676170611E+03 0.16148473975E+03 0.14611140934E+03 0.13029971022E+03 0.11241902964E+03
 0.92611418822E+02 0.73588832894E+02 0.58623832201E+02 0.49072416064E+02 0.43728874532E+02
 0.40978751513E+02 0.39882677300E+02 0.39623621602E+02 0.39882664691E+02 0.40978727298E+02
 0.43728840227E+02 0.49072373139E+02 0.58623782498E+02 0.73588780900E+02 0.92611374439E+02
 0.11241900807E+03 0.13029972632E+03 0.14611146799E+03 0.16148482835E+03 0.17676179558E+03
 0.18904041581E+03 0.18904041580E+03 0.18904039458E+03 0.18163766211E+03 0.16967337873E+03
 0.15602063566E+03 0.14114880264E+03 0.12371774782E+03 0.10332860295E+03 0.82216883219E+02
 0.64083870340E+02 0.51439078832E+02 0.44060860760E+02 0.39999412530E+02 0.38109761246E+02
 0.37463532417E+02 0.37463527312E+02 0.38109746440E+02 0.39999389291E+02 0.44060830536E+02
 0.51439042914E+02 0.64083830697E+02 0.82216844657E+02 0.10332857470E+03 0.12371774172E+03
 0.14114882712E+03 0.15602068866E+03 0.16967344473E+03 0.18163771681E+03 0.17676179553E+03
 0.17942725254E+03 0.17676177705E+03 0.16967341640E+03 0.15976986763E+03 0.14744200982E+03